   2  128
   1   1
    12.240101995377959     0.000000000000001     0.000000000000000
     0.000000000000000    12.240101995377959     0.000000000000001
     0.000000000000001     0.000000000000000    12.240101995377957
   1   2
     0.371002083642059     0.092848525552439     0.092848525552439
    -0.084495592940232    -0.157084408787043    -0.152323902883115
    -0.084495592940232    -0.152323902883115    -0.157084408787043
   1   3
     0.161751523311234     0.000000000000000     0.000000000000000
    -0.000000000000000     0.005916008884797    -0.026228363878291
     0.000000000000000    -0.026228363878291     0.005916008884797
   1   4
     0.371002083642059    -0.092848525552439    -0.092848525552439
     0.084495592940232    -0.157084408787043    -0.152323902883115
     0.084495592940232    -0.152323902883115    -0.157084408787043
   1   5
    -0.157084408787043    -0.084495592940232    -0.152323902883115
     0.092848525552439     0.371002083642059     0.092848525552439
    -0.152323902883115    -0.084495592940232    -0.157084408787043
   1   6
    -0.019132718508650     0.028275290966415    -0.025199341137840
     0.028275290966415    -0.019132718508650    -0.025199341137840
    -0.018932784066270    -0.018932784066270    -0.003197183311135
   1   7
    -0.019132718508650     0.025199341137840    -0.028275290966415
     0.018932784066270    -0.003197183311135    -0.018932784066270
    -0.028275290966415    -0.025199341137840    -0.019132718508650
   1   8
    -0.157084408787043     0.152323902883115     0.084495592940232
     0.152323902883115    -0.157084408787043    -0.084495592940232
    -0.092848525552439     0.092848525552439     0.371002083642059
   1   9
     0.005916008884797     0.000000000000000    -0.026228363878291
     0.000000000000000     0.161751523311234     0.000000000000000
    -0.026228363878291     0.000000000000000     0.005916008884797
   1  10
    -0.003197183311135     0.018932784066270    -0.018932784066270
     0.025199341137840    -0.019132718508650    -0.028275290966415
    -0.025199341137840    -0.028275290966415    -0.019132718508650
   1  11
     0.005916008884797     0.026228363878291     0.000000000000000
     0.026228363878291     0.005916008884797    -0.000000000000000
    -0.000000000000000    -0.000000000000000     0.161751523311234
   1  12
    -0.003188698029761     0.025187673875951    -0.025187673875951
     0.018944804881550    -0.019132718508650    -0.030218674045646
    -0.018944804881550    -0.030218674045646    -0.019132718508650
   1  13
    -0.157084408787043     0.084495592940232    -0.152323902883115
    -0.092848525552439     0.371002083642059    -0.092848525552439
    -0.152323902883115     0.084495592940232    -0.157084408787043
   1  14
    -0.157084408787043     0.152323902883115    -0.084495592940232
     0.152323902883115    -0.157084408787043     0.084495592940232
     0.092848525552439    -0.092848525552439     0.371002083642059
   1  15
    -0.019132718508650     0.018944804881550    -0.030218674045646
     0.025187673875951    -0.003188698029761    -0.025187673875951
    -0.030218674045646    -0.018944804881550    -0.019132718508650
   1  16
    -0.019132718508650     0.030218674045646    -0.018944804881550
     0.030218674045646    -0.019132718508650    -0.018944804881550
    -0.025187673875951    -0.025187673875951    -0.003188698029761
   1  17
    -0.157084408787043    -0.152323902883115    -0.084495592940232
    -0.152323902883115    -0.157084408787043    -0.084495592940232
     0.092848525552439     0.092848525552439     0.371002083642059
   1  18
    -0.019132718508650    -0.025199341137840     0.028275290966415
    -0.018932784066270    -0.003197183311135    -0.018932784066270
     0.028275290966415    -0.025199341137840    -0.019132718508650
   1  19
    -0.019132718508650    -0.028275290966415     0.025199341137840
    -0.028275290966415    -0.019132718508650    -0.025199341137840
     0.018932784066270    -0.018932784066270    -0.003197183311135
   1  20
    -0.157084408787043     0.084495592940232     0.152323902883115
    -0.092848525552439     0.371002083642059     0.092848525552439
     0.152323902883115    -0.084495592940232    -0.157084408787043
   1  21
    -0.003197183311135    -0.018932784066270    -0.018932784066270
    -0.025199341137840    -0.019132718508650     0.028275290966415
    -0.025199341137840     0.028275290966415    -0.019132718508650
   1  22
    -0.011484828340032    -0.000000000000000    -0.000000000000000
     0.000000000000000    -0.011484828340032     0.000000000000000
    -0.000000000000000    -0.000000000000000    -0.011484828340032
   1  23
    -0.003197183311135     0.018932784066270     0.018932784066270
     0.025199341137840    -0.019132718508650     0.028275290966415
     0.025199341137840     0.028275290966415    -0.019132718508650
   1  24
    -0.011567559833431    -0.000000000000000     0.000000000000000
    -0.000000000000000    -0.021658327154353     0.000005303300859
    -0.000000000000000     0.000005303300859    -0.021658327154353
   1  25
    -0.019132718508650    -0.028275290966415    -0.025199341137840
    -0.028275290966415    -0.019132718508650     0.025199341137840
    -0.018932784066270     0.018932784066270    -0.003197183311135
   1  26
    -0.019132718508650     0.025199341137840     0.028275290966415
     0.018932784066270    -0.003197183311135     0.018932784066270
     0.028275290966415     0.025199341137840    -0.019132718508650
   1  27
    -0.012918310562192    -0.001029724250103    -0.001117051937579
    -0.001029724250103    -0.012918310562192    -0.001117051937579
     0.001115814500712     0.001115814500712    -0.014310073484263
   1  28
    -0.012918310562192     0.001117051937579     0.001029724250103
    -0.001115814500712    -0.014310073484263     0.001115814500712
     0.001029724250103    -0.001117051937579    -0.012918310562192
   1  29
     0.371002083642059    -0.092848525552439     0.092848525552439
     0.084495592940232    -0.157084408787043     0.152323902883115
    -0.084495592940232     0.152323902883115    -0.157084408787043
   1  30
    -0.021658327154353    -0.000000000000000     0.000005303300859
    -0.000000000000000    -0.011567559833431     0.000000000000000
     0.000005303300859    -0.000000000000000    -0.021658327154353
   1  31
    -0.014310073484263    -0.001115814500712     0.001115814500712
     0.001117051937579    -0.012918310562192     0.001029724250103
    -0.001117051937579     0.001029724250103    -0.012918310562192
   1  32
    -0.021658327154353    -0.000005303300859    -0.000000000000000
    -0.000005303300859    -0.021658327154353     0.000000000000000
     0.000000000000000    -0.000000000000000    -0.011567559833431
   1  33
     0.005916008884797    -0.026228363878291    -0.000000000000000
    -0.026228363878291     0.005916008884797    -0.000000000000000
    -0.000000000000000    -0.000000000000000     0.161751523311234
   1  34
    -0.003197183311135    -0.018932784066270     0.018932784066270
    -0.025199341137840    -0.019132718508650    -0.028275290966415
     0.025199341137840    -0.028275290966415    -0.019132718508650
   1  35
     0.005916008884797     0.000000000000000     0.026228363878291
     0.000000000000000     0.161751523311234    -0.000000000000000
     0.026228363878291     0.000000000000000     0.005916008884797
   1  36
    -0.003188698029761    -0.025187673875951     0.025187673875951
    -0.018944804881550    -0.019132718508650    -0.030218674045646
     0.018944804881550    -0.030218674045646    -0.019132718508650
   1  37
    -0.019132718508650    -0.025199341137840    -0.028275290966415
    -0.018932784066270    -0.003197183311135     0.018932784066270
    -0.028275290966415     0.025199341137840    -0.019132718508650
   1  38
    -0.019132718508650     0.028275290966415     0.025199341137840
     0.028275290966415    -0.019132718508650     0.025199341137840
     0.018932784066270     0.018932784066270    -0.003197183311135
   1  39
    -0.012918310562192    -0.001117051937579    -0.001029724250103
     0.001115814500712    -0.014310073484263     0.001115814500712
    -0.001029724250103    -0.001117051937579    -0.012918310562192
   1  40
    -0.012918310562192     0.001029724250103     0.001117051937579
     0.001029724250103    -0.012918310562192    -0.001117051937579
    -0.001115814500712     0.001115814500712    -0.014310073484263
   1  41
     0.161751523311234     0.000000000000000     0.000000000000000
    -0.000000000000000     0.005916008884797     0.026228363878291
     0.000000000000000     0.026228363878291     0.005916008884797
   1  42
    -0.014310073484263     0.001115814500712     0.001115814500712
    -0.001117051937579    -0.012918310562192    -0.001029724250103
    -0.001117051937579    -0.001029724250103    -0.012918310562192
   1  43
    -0.012620441830617    -0.000000000000000    -0.000000000000000
    -0.000000000000000    -0.012620441830617     0.000000000000000
     0.000000000000000    -0.000000000000000    -0.012620441830617
   1  44
    -0.014310073484263    -0.001115814500712    -0.001115814500712
     0.001117051937579    -0.012918310562192    -0.001029724250103
     0.001117051937579    -0.001029724250103    -0.012918310562192
   1  45
    -0.019132718508650    -0.018944804881550    -0.030218674045646
    -0.025187673875951    -0.003188698029761     0.025187673875951
    -0.030218674045646     0.018944804881550    -0.019132718508650
   1  46
    -0.012918310562192     0.001029724250103    -0.001117051937579
     0.001029724250103    -0.012918310562192     0.001117051937579
     0.001115814500712    -0.001115814500712    -0.014310073484263
   1  47
    -0.012918310562192     0.001117051937579    -0.001029724250103
    -0.001115814500712    -0.014310073484263    -0.001115814500712
    -0.001029724250103     0.001117051937579    -0.012918310562192
   1  48
    -0.019132718508650     0.030218674045646     0.018944804881550
     0.030218674045646    -0.019132718508650     0.018944804881550
     0.025187673875951     0.025187673875951    -0.003188698029761
   1  49
    -0.157084408787043    -0.152323902883115     0.084495592940232
    -0.152323902883115    -0.157084408787043     0.084495592940232
    -0.092848525552439    -0.092848525552439     0.371002083642059
   1  50
    -0.157084408787043    -0.084495592940232     0.152323902883115
     0.092848525552439     0.371002083642059    -0.092848525552439
     0.152323902883115     0.084495592940232    -0.157084408787043
   1  51
    -0.019132718508650    -0.030218674045646     0.018944804881550
    -0.030218674045646    -0.019132718508650    -0.018944804881550
     0.025187673875951    -0.025187673875951    -0.003188698029761
   1  52
    -0.019132718508650    -0.018944804881550     0.030218674045646
    -0.025187673875951    -0.003188698029761    -0.025187673875951
     0.030218674045646    -0.018944804881550    -0.019132718508650
   1  53
     0.371002083642059     0.092848525552439    -0.092848525552439
    -0.084495592940232    -0.157084408787043     0.152323902883115
     0.084495592940232     0.152323902883115    -0.157084408787043
   1  54
    -0.021658327154353     0.000005303300859    -0.000000000000000
     0.000005303300859    -0.021658327154353     0.000000000000000
    -0.000000000000000    -0.000000000000000    -0.011567559833431
   1  55
    -0.014310073484263     0.001115814500712    -0.001115814500712
    -0.001117051937579    -0.012918310562192     0.001029724250103
     0.001117051937579     0.001029724250103    -0.012918310562192
   1  56
    -0.021658327154353    -0.000000000000000    -0.000005303300859
     0.000000000000000    -0.011567559833431     0.000000000000000
    -0.000005303300859    -0.000000000000000    -0.021658327154353
   1  57
    -0.019132718508650    -0.030218674045646    -0.018944804881550
    -0.030218674045646    -0.019132718508650     0.018944804881550
    -0.025187673875951     0.025187673875951    -0.003188698029761
   1  58
    -0.012918310562192    -0.001117051937579     0.001029724250103
     0.001115814500712    -0.014310073484263    -0.001115814500712
     0.001029724250103     0.001117051937579    -0.012918310562192
   1  59
    -0.012918310562192    -0.001029724250103     0.001117051937579
    -0.001029724250103    -0.012918310562192     0.001117051937579
    -0.001115814500712    -0.001115814500712    -0.014310073484263
   1  60
    -0.019132718508650     0.018944804881550     0.030218674045646
     0.025187673875951    -0.003188698029761     0.025187673875951
     0.030218674045646     0.018944804881550    -0.019132718508650
   1  61
    -0.003188698029761    -0.025187673875951    -0.025187673875951
    -0.018944804881550    -0.019132718508650     0.030218674045646
    -0.018944804881550     0.030218674045646    -0.019132718508650
   1  62
    -0.011567559833431    -0.000000000000000    -0.000000000000000
    -0.000000000000000    -0.021658327154353    -0.000005303300859
    -0.000000000000000    -0.000005303300859    -0.021658327154353
   1  63
    -0.003188698029761     0.025187673875951     0.025187673875951
     0.018944804881550    -0.019132718508650     0.030218674045646
     0.018944804881550     0.030218674045646    -0.019132718508650
   1  64
    -0.011507455757030    -0.000000000000000    -0.000000000000000
    -0.000000000000000    -0.011507455757030     0.000000000000000
    -0.000000000000000    -0.000000000000000    -0.011507455757030
   1  65
     0.015667364950750    -0.001132608286766    -0.001132608286766
    -0.001132608286766     0.015667364950750    -0.001132608286766
    -0.001132608286766    -0.001132608286766     0.015667364950750
   1  66
     0.010710192861242     0.027393530078683     0.027393530078683
     0.033756951668218     0.021945298517911    -0.055123460063563
     0.033756951668218    -0.055123460063563     0.021945298517911
   1  67
     0.010710192861242    -0.027393530078683    -0.027393530078683
    -0.033756951668218     0.021945298517911    -0.055123460063563
    -0.033756951668218    -0.055123460063563     0.021945298517911
   1  68
     0.015667364950750     0.001132608286766     0.001132608286766
     0.001132608286766     0.015667364950750    -0.001132608286766
     0.001132608286766    -0.001132608286766     0.015667364950750
   1  69
     0.021945298517911     0.033756951668218    -0.055123460063563
     0.027393530078683     0.010710192861242     0.027393530078683
    -0.055123460063563     0.033756951668218     0.021945298517911
   1  70
    -2.944934924891478    -2.138809209244203     2.138809209244203
    -2.138809209244203    -2.944934924891478     2.138809209244203
     2.138809209244202     2.138809209244203    -2.944934924891478
   1  71
     0.021945298517911     0.055123460063563    -0.033756951668218
     0.055123460063563     0.021945298517911     0.033756951668218
    -0.027393530078683     0.027393530078683     0.010710192861242
   1  72
     0.018148602645934     0.026765405881473    -0.026765405881473
     0.033946652763823     0.001629881130635     0.011791712683067
    -0.033946652763823     0.011791712683067     0.001629881130635
   1  73
     0.021945298517911    -0.033756951668218    -0.055123460063563
    -0.027393530078683     0.010710192861242    -0.027393530078683
    -0.055123460063563    -0.033756951668218     0.021945298517911
   1  74
     0.021945298517911     0.055123460063563     0.033756951668218
     0.055123460063563     0.021945298517911    -0.033756951668218
     0.027393530078683    -0.027393530078683     0.010710192861242
   1  75
     0.015160546165335     0.004167864145009    -0.002783702620836
     0.004167864145009     0.015160546165335    -0.002783702620836
    -0.002792364678906    -0.002792364678906     0.008315222193363
   1  76
     0.015160546165335     0.002783702620836    -0.004167864145009
     0.002792364678906     0.008315222193363    -0.002792364678906
    -0.004167864145009    -0.002783702620836     0.015160546165335
   1  77
     0.015667364950750     0.001132608286766    -0.001132608286766
     0.001132608286766     0.015667364950750     0.001132608286766
    -0.001132608286766     0.001132608286766     0.015667364950750
   1  78
     0.001629881130635     0.033946652763823     0.011791712683067
     0.026765405881473     0.018148602645934    -0.026765405881473
     0.011791712683067    -0.033946652763823     0.001629881130635
   1  79
     0.008315222193363     0.002792364678906    -0.002792364678906
     0.002783702620836     0.015160546165335    -0.004167864145009
    -0.002783702620836    -0.004167864145009     0.015160546165335
   1  80
     0.001629881130635    -0.011791712683067    -0.033946652763823
    -0.011791712683067     0.001629881130635    -0.033946652763823
    -0.026765405881473    -0.026765405881473     0.018148602645934
   1  81
     0.021945298517911    -0.055123460063563     0.033756951668218
    -0.055123460063563     0.021945298517911     0.033756951668218
     0.027393530078683     0.027393530078683     0.010710192861242
   1  82
    -2.944934924891478     2.138809209244203    -2.138809209244203
     2.138809209244203    -2.944934924891480     2.138809209244203
    -2.138809209244203     2.138809209244203    -2.944934924891478
   1  83
     0.021945298517911    -0.033756951668218     0.055123460063563
    -0.027393530078683     0.010710192861242     0.027393530078683
     0.055123460063563     0.033756951668218     0.021945298517911
   1  84
     0.018148602645934    -0.026765405881473     0.026765405881473
    -0.033946652763823     0.001629881130635     0.011791712683067
     0.033946652763823     0.011791712683067     0.001629881130635
   1  85
    -2.944934924891480     2.138809209244203     2.138809209244203
     2.138809209244203    -2.944934924891478    -2.138809209244203
     2.138809209244203    -2.138809209244203    -2.944934924891478
   1  86
    -2.944934924891478    -2.138809209244203    -2.138809209244203
    -2.138809209244203    -2.944934924891478    -2.138809209244203
    -2.138809209244203    -2.138809209244203    -2.944934924891478
   1  87
    -0.234103116849430     0.042463200639985     0.042463200639985
     0.040546768167962    -0.007330222447170     0.004720644871201
     0.040546768167962     0.004720644871201    -0.007330222447170
   1  88
    -0.234103116849430    -0.042463200639985    -0.042463200639985
    -0.040546768167962    -0.007330222447170     0.004720644871201
    -0.040546768167962     0.004720644871201    -0.007330222447170
   1  89
     0.010710192861242    -0.027393530078683     0.027393530078683
    -0.033756951668218     0.021945298517911     0.055123460063563
     0.033756951668218     0.055123460063563     0.021945298517911
   1  90
    -0.007330222447170     0.040546768167962     0.004720644871201
     0.042463200639985    -0.234103116849430     0.042463200639985
     0.004720644871201     0.040546768167962    -0.007330222447170
   1  91
     0.007332697320904    -0.025570194344128     0.025570194344128
    -0.025570194344128     0.007332697320904     0.025570194344128
     0.025570194344128     0.025570194344128     0.007332697320904
   1  92
    -0.007330222447170    -0.004720644871201    -0.040546768167962
    -0.004720644871201    -0.007330222447170     0.040546768167962
    -0.042463200639985     0.042463200639985    -0.234103116849430
   1  93
     0.001629881130635    -0.033946652763823     0.011791712683067
    -0.026765405881473     0.018148602645934     0.026765405881473
     0.011791712683067     0.033946652763823     0.001629881130635
   1  94
    -0.007330222447170    -0.040546768167962     0.004720644871201
    -0.042463200639985    -0.234103116849430    -0.042463200639985
     0.004720644871201    -0.040546768167962    -0.007330222447170
   1  95
    -0.007330222447170    -0.004720644871201     0.040546768167962
    -0.004720644871201    -0.007330222447170    -0.040546768167962
     0.042463200639985    -0.042463200639985    -0.234103116849430
   1  96
     0.001629881130635    -0.011791712683067     0.033946652763823
    -0.011791712683067     0.001629881130635     0.033946652763823
     0.026765405881473     0.026765405881473     0.018148602645934
   1  97
     0.021945298517911    -0.055123460063563    -0.033756951668218
    -0.055123460063563     0.021945298517911    -0.033756951668218
    -0.027393530078683    -0.027393530078683     0.010710192861242
   1  98
     0.021945298517911     0.033756951668218     0.055123460063563
     0.027393530078683     0.010710192861242    -0.027393530078683
     0.055123460063563    -0.033756951668218     0.021945298517911
   1  99
     0.015160546165335    -0.002783702620836     0.004167864145009
    -0.002792364678906     0.008315222193363    -0.002792364678906
     0.004167864145009    -0.002783702620836     0.015160546165335
   1 100
     0.015160546165335    -0.004167864145009     0.002783702620836
    -0.004167864145009     0.015160546165335    -0.002783702620836
     0.002792364678906    -0.002792364678906     0.008315222193363
   1 101
     0.010710192861242     0.027393530078683    -0.027393530078683
     0.033756951668218     0.021945298517911     0.055123460063563
    -0.033756951668218     0.055123460063563     0.021945298517911
   1 102
    -0.007330222447170     0.004720644871201     0.040546768167962
     0.004720644871201    -0.007330222447170     0.040546768167962
     0.042463200639985     0.042463200639985    -0.234103116849430
   1 103
     0.007332697320904     0.025570194344128    -0.025570194344128
     0.025570194344128     0.007332697320904     0.025570194344128
    -0.025570194344128     0.025570194344128     0.007332697320904
   1 104
    -0.007330222447170    -0.040546768167962    -0.004720644871201
    -0.042463200639985    -0.234103116849430     0.042463200639985
    -0.004720644871201     0.040546768167962    -0.007330222447170
   1 105
     0.008315222193363    -0.002792364678906    -0.002792364678906
    -0.002783702620836     0.015160546165335     0.004167864145009
    -0.002783702620836     0.004167864145009     0.015160546165335
   1 106
     0.007332697320904     0.025570194344128     0.025570194344128
     0.025570194344128     0.007332697320904    -0.025570194344128
     0.025570194344128    -0.025570194344128     0.007332697320904
   1 107
     0.007332697320904    -0.025570194344128    -0.025570194344128
    -0.025570194344128     0.007332697320904    -0.025570194344128
    -0.025570194344128    -0.025570194344128     0.007332697320904
   1 108
     0.008315222193363     0.002792364678906     0.002792364678906
     0.002783702620836     0.015160546165335     0.004167864145009
     0.002783702620836     0.004167864145009     0.015160546165335
   1 109
     0.015160546165335    -0.004167864145009    -0.002783702620836
    -0.004167864145009     0.015160546165335     0.002783702620836
    -0.002792364678906     0.002792364678906     0.008315222193363
   1 110
    -0.234103116849430    -0.042463200639985     0.042463200639985
    -0.040546768167962    -0.007330222447170    -0.004720644871201
     0.040546768167962    -0.004720644871201    -0.007330222447170
   1 111
     0.015160546165335     0.002783702620836     0.004167864145009
     0.002792364678906     0.008315222193363     0.002792364678906
     0.004167864145009     0.002783702620836     0.015160546165335
   1 112
     0.011811158119549    -0.000685540024360     0.000685540024360
    -0.000685540024360     0.011811158119549     0.000685540024360
     0.000685540024360     0.000685540024360     0.011811158119549
   1 113
     0.015667364950750    -0.001132608286766     0.001132608286766
    -0.001132608286766     0.015667364950750     0.001132608286766
     0.001132608286766     0.001132608286766     0.015667364950750
   1 114
     0.001629881130635     0.011791712683067     0.033946652763823
     0.011791712683067     0.001629881130635    -0.033946652763823
     0.026765405881473    -0.026765405881473     0.018148602645934
   1 115
     0.008315222193363    -0.002792364678906     0.002792364678906
    -0.002783702620836     0.015160546165335    -0.004167864145009
     0.002783702620836    -0.004167864145009     0.015160546165335
   1 116
     0.001629881130635    -0.033946652763823    -0.011791712683067
    -0.026765405881473     0.018148602645934    -0.026765405881473
    -0.011791712683067    -0.033946652763823     0.001629881130635
   1 117
     0.001629881130635     0.011791712683067    -0.033946652763823
     0.011791712683067     0.001629881130635     0.033946652763823
    -0.026765405881473     0.026765405881473     0.018148602645934
   1 118
    -0.007330222447170     0.004720644871201    -0.040546768167962
     0.004720644871201    -0.007330222447170    -0.040546768167962
    -0.042463200639985    -0.042463200639985    -0.234103116849430
   1 119
    -0.007330222447170     0.040546768167962    -0.004720644871201
     0.042463200639985    -0.234103116849430    -0.042463200639985
    -0.004720644871201    -0.040546768167962    -0.007330222447170
   1 120
     0.001629881130635     0.033946652763823    -0.011791712683067
     0.026765405881473     0.018148602645934     0.026765405881473
    -0.011791712683067     0.033946652763823     0.001629881130635
   1 121
     0.015160546165335    -0.002783702620836    -0.004167864145009
    -0.002792364678906     0.008315222193363     0.002792364678906
    -0.004167864145009     0.002783702620836     0.015160546165335
   1 122
    -0.234103116849430     0.042463200639985    -0.042463200639985
     0.040546768167962    -0.007330222447170    -0.004720644871201
    -0.040546768167962    -0.004720644871201    -0.007330222447170
   1 123
     0.015160546165335     0.004167864145009     0.002783702620836
     0.004167864145009     0.015160546165335     0.002783702620836
     0.002792364678906     0.002792364678906     0.008315222193363
   1 124
     0.011811158119549     0.000685540024360    -0.000685540024360
     0.000685540024360     0.011811158119549     0.000685540024360
    -0.000685540024360     0.000685540024360     0.011811158119549
   1 125
     0.018148602645934    -0.026765405881473    -0.026765405881473
    -0.033946652763823     0.001629881130635    -0.011791712683067
    -0.033946652763823    -0.011791712683067     0.001629881130635
   1 126
     0.018148602645934     0.026765405881473     0.026765405881473
     0.033946652763823     0.001629881130635    -0.011791712683067
     0.033946652763823    -0.011791712683067     0.001629881130635
   1 127
     0.011811158119549     0.000685540024360     0.000685540024360
     0.000685540024360     0.011811158119549    -0.000685540024360
     0.000685540024360    -0.000685540024360     0.011811158119549
   1 128
     0.011811158119549    -0.000685540024360    -0.000685540024360
    -0.000685540024360     0.011811158119549    -0.000685540024360
    -0.000685540024360    -0.000685540024360     0.011811158119549
  65   1
     0.015667364950750    -0.001132608286766    -0.001132608286766
    -0.001132608286766     0.015667364950750    -0.001132608286766
    -0.001132608286766    -0.001132608286766     0.015667364950750
  65   2
     0.015667364950750     0.001132608286766     0.001132608286766
     0.001132608286766     0.015667364950750    -0.001132608286766
     0.001132608286766    -0.001132608286766     0.015667364950750
  65   3
     0.010710192861242    -0.027393530078683    -0.027393530078683
    -0.033756951668218     0.021945298517911    -0.055123460063563
    -0.033756951668218    -0.055123460063563     0.021945298517911
  65   4
     0.010710192861242     0.027393530078683     0.027393530078683
     0.033756951668218     0.021945298517911    -0.055123460063563
     0.033756951668218    -0.055123460063563     0.021945298517911
  65   5
     0.015667364950750     0.001132608286766    -0.001132608286766
     0.001132608286766     0.015667364950750     0.001132608286766
    -0.001132608286766     0.001132608286766     0.015667364950750
  65   6
     0.001629881130635    -0.011791712683067    -0.033946652763823
    -0.011791712683067     0.001629881130635    -0.033946652763823
    -0.026765405881473    -0.026765405881473     0.018148602645934
  65   7
     0.008315222193363     0.002792364678906    -0.002792364678906
     0.002783702620836     0.015160546165335    -0.004167864145009
    -0.002783702620836    -0.004167864145009     0.015160546165335
  65   8
     0.001629881130635     0.033946652763823     0.011791712683067
     0.026765405881473     0.018148602645934    -0.026765405881473
     0.011791712683067    -0.033946652763823     0.001629881130635
  65   9
     0.021945298517911    -0.033756951668218    -0.055123460063563
    -0.027393530078683     0.010710192861242    -0.027393530078683
    -0.055123460063563    -0.033756951668218     0.021945298517911
  65  10
     0.015160546165335     0.002783702620836    -0.004167864145009
     0.002792364678906     0.008315222193363    -0.002792364678906
    -0.004167864145009    -0.002783702620836     0.015160546165335
  65  11
     0.015160546165335     0.004167864145009    -0.002783702620836
     0.004167864145009     0.015160546165335    -0.002783702620836
    -0.002792364678906    -0.002792364678906     0.008315222193363
  65  12
     0.021945298517911     0.055123460063563     0.033756951668218
     0.055123460063563     0.021945298517911    -0.033756951668218
     0.027393530078683    -0.027393530078683     0.010710192861242
  65  13
     0.021945298517911     0.033756951668218    -0.055123460063563
     0.027393530078683     0.010710192861242     0.027393530078683
    -0.055123460063563     0.033756951668218     0.021945298517911
  65  14
     0.018148602645934     0.026765405881473    -0.026765405881473
     0.033946652763823     0.001629881130635     0.011791712683067
    -0.033946652763823     0.011791712683067     0.001629881130635
  65  15
     0.021945298517911     0.055123460063563    -0.033756951668218
     0.055123460063563     0.021945298517911     0.033756951668218